version 2
run General-0-20150309-10:20:35-10024
attr configname General
attr datetime 20150309-10:20:35
attr experiment General
attr inifile omnetpp.ini
attr iterationvars ""
attr iterationvars2 $repetition=0
attr measurement ""
attr network SourceSink
attr processid 10024
attr repetition 0
attr replication #0
attr resultdir results
attr runnumber 0
attr seedset 0

vector 0  SourceSink.sink[0]  arrivals  ETV
attr interpolationmode  none
0	21	0	1
0	35	0	1
0	36	0	1
